LAMMPS data file. CGCMM style. atom_style full generated by VMD/TopoTools v1.7 on Wed Jul 12 09:21:37 IST 2017
 180 atoms
 0 bonds
 0 angles
 0 dihedrals
 0 impropers
 1 atom types
 0 bond types
 0 angle types
 0 dihedral types
 0 improper types
  -2.0000 23.2720  xlo xhi
  -2.0000 24.1062  ylo yhi
  -3.0000 3.0000  zlo zhi

# Pair Coeffs
#
# 1  CA

 Masses

 1 12.010700 # CA

 Atoms # full

1 1 1 0.000000 0.709000 0.000000 0.000000 # CA GRA
2 2 1 0.000000 0.000000 1.228024 0.000000 # CA GRA
3 3 1 0.000000 2.127000 0.000000 0.000000 # CA GRA
4 4 1 0.000000 2.836000 1.228024 0.000000 # CA GRA
5 5 1 0.000000 4.963000 0.000000 0.000000 # CA GRA
6 6 1 0.000000 4.254000 1.228024 0.000000 # CA GRA
7 7 1 0.000000 6.381000 0.000000 0.000000 # CA GRA
8 8 1 0.000000 7.090000 1.228024 0.000000 # CA GRA
9 9 1 0.000000 9.217000 0.000000 0.000000 # CA GRA
10 10 1 0.000000 8.507999 1.228024 0.000000 # CA GRA
11 11 1 0.000000 10.634999 0.000000 0.000000 # CA GRA
12 12 1 0.000000 11.344000 1.228024 0.000000 # CA GRA
13 13 1 0.000000 13.471000 0.000000 0.000000 # CA GRA
14 14 1 0.000000 12.762000 1.228024 0.000000 # CA GRA
15 15 1 0.000000 14.889000 0.000000 0.000000 # CA GRA
16 16 1 0.000000 15.598000 1.228024 0.000000 # CA GRA
17 17 1 0.000000 17.725000 0.000000 0.000000 # CA GRA
18 18 1 0.000000 17.015999 1.228024 0.000000 # CA GRA
19 19 1 0.000000 19.143000 0.000000 0.000000 # CA GRA
20 20 1 0.000000 19.851999 1.228024 0.000000 # CA GRA
21 21 1 0.000000 0.709000 2.456048 0.000000 # CA GRA
22 22 1 0.000000 0.000000 3.684072 0.000000 # CA GRA
23 23 1 0.000000 2.127000 2.456048 0.000000 # CA GRA
24 24 1 0.000000 2.836000 3.684072 0.000000 # CA GRA
25 25 1 0.000000 4.963000 2.456048 0.000000 # CA GRA
26 26 1 0.000000 4.254000 3.684072 0.000000 # CA GRA
27 27 1 0.000000 6.381000 2.456048 0.000000 # CA GRA
28 28 1 0.000000 7.090000 3.684072 0.000000 # CA GRA
29 29 1 0.000000 9.217000 2.456048 0.000000 # CA GRA
30 30 1 0.000000 8.507999 3.684072 0.000000 # CA GRA
31 31 1 0.000000 10.634999 2.456048 0.000000 # CA GRA
32 32 1 0.000000 11.344000 3.684072 0.000000 # CA GRA
33 33 1 0.000000 13.471000 2.456048 0.000000 # CA GRA
34 34 1 0.000000 12.762000 3.684072 0.000000 # CA GRA
35 35 1 0.000000 14.889000 2.456048 0.000000 # CA GRA
36 36 1 0.000000 15.598000 3.684072 0.000000 # CA GRA
37 37 1 0.000000 17.725000 2.456048 0.000000 # CA GRA
38 38 1 0.000000 17.015999 3.684072 0.000000 # CA GRA
39 39 1 0.000000 19.143000 2.456048 0.000000 # CA GRA
40 40 1 0.000000 19.851999 3.684072 0.000000 # CA GRA
41 41 1 0.000000 0.709000 4.912096 0.000000 # CA GRA
42 42 1 0.000000 0.000000 6.140120 0.000000 # CA GRA
43 43 1 0.000000 2.127000 4.912096 0.000000 # CA GRA
44 44 1 0.000000 2.836000 6.140120 0.000000 # CA GRA
45 45 1 0.000000 4.963000 4.912096 0.000000 # CA GRA
46 46 1 0.000000 4.254000 6.140120 0.000000 # CA GRA
47 47 1 0.000000 6.381000 4.912096 0.000000 # CA GRA
48 48 1 0.000000 7.090000 6.140120 0.000000 # CA GRA
49 49 1 0.000000 9.217000 4.912096 0.000000 # CA GRA
50 50 1 0.000000 8.507999 6.140120 0.000000 # CA GRA
51 51 1 0.000000 10.634999 4.912096 0.000000 # CA GRA
52 52 1 0.000000 11.344000 6.140120 0.000000 # CA GRA
53 53 1 0.000000 13.471000 4.912096 0.000000 # CA GRA
54 54 1 0.000000 12.762000 6.140120 0.000000 # CA GRA
55 55 1 0.000000 14.889000 4.912096 0.000000 # CA GRA
56 56 1 0.000000 15.598000 6.140120 0.000000 # CA GRA
57 57 1 0.000000 17.725000 4.912096 0.000000 # CA GRA
58 58 1 0.000000 17.015999 6.140120 0.000000 # CA GRA
59 59 1 0.000000 19.143000 4.912096 0.000000 # CA GRA
60 60 1 0.000000 19.851999 6.140120 0.000000 # CA GRA
61 61 1 0.000000 0.709000 7.368144 0.000000 # CA GRA
62 62 1 0.000000 0.000000 8.596169 0.000000 # CA GRA
63 63 1 0.000000 2.127000 7.368144 0.000000 # CA GRA
64 64 1 0.000000 2.836000 8.596169 0.000000 # CA GRA
65 65 1 0.000000 4.963000 7.368144 0.000000 # CA GRA
66 66 1 0.000000 4.254000 8.596169 0.000000 # CA GRA
67 67 1 0.000000 6.381000 7.368144 0.000000 # CA GRA
68 68 1 0.000000 7.090000 8.596169 0.000000 # CA GRA
69 69 1 0.000000 9.217000 7.368144 0.000000 # CA GRA
70 70 1 0.000000 8.507999 8.596169 0.000000 # CA GRA
71 71 1 0.000000 10.634999 7.368144 0.000000 # CA GRA
72 72 1 0.000000 11.344000 8.596169 0.000000 # CA GRA
73 73 1 0.000000 13.471000 7.368144 0.000000 # CA GRA
74 74 1 0.000000 12.762000 8.596169 0.000000 # CA GRA
75 75 1 0.000000 14.889000 7.368144 0.000000 # CA GRA
76 76 1 0.000000 15.598000 8.596169 0.000000 # CA GRA
77 77 1 0.000000 17.725000 7.368144 0.000000 # CA GRA
78 78 1 0.000000 17.015999 8.596169 0.000000 # CA GRA
79 79 1 0.000000 19.143000 7.368144 0.000000 # CA GRA
80 80 1 0.000000 19.851999 8.596169 0.000000 # CA GRA
81 81 1 0.000000 0.709000 9.824192 0.000000 # CA GRA
82 82 1 0.000000 0.000000 11.052217 0.000000 # CA GRA
83 83 1 0.000000 2.127000 9.824192 0.000000 # CA GRA
84 84 1 0.000000 2.836000 11.052217 0.000000 # CA GRA
85 85 1 0.000000 4.963000 9.824192 0.000000 # CA GRA
86 86 1 0.000000 4.254000 11.052217 0.000000 # CA GRA
87 87 1 0.000000 6.381000 9.824192 0.000000 # CA GRA
88 88 1 0.000000 7.090000 11.052217 0.000000 # CA GRA
89 89 1 0.000000 9.217000 9.824192 0.000000 # CA GRA
90 90 1 0.000000 8.507999 11.052217 0.000000 # CA GRA
91 91 1 0.000000 10.634999 9.824192 0.000000 # CA GRA
92 92 1 0.000000 11.344000 11.052217 0.000000 # CA GRA
93 93 1 0.000000 13.471000 9.824192 0.000000 # CA GRA
94 94 1 0.000000 12.762000 11.052217 0.000000 # CA GRA
95 95 1 0.000000 14.889000 9.824192 0.000000 # CA GRA
96 96 1 0.000000 15.598000 11.052217 0.000000 # CA GRA
97 97 1 0.000000 17.725000 9.824192 0.000000 # CA GRA
98 98 1 0.000000 17.015999 11.052217 0.000000 # CA GRA
99 99 1 0.000000 19.143000 9.824192 0.000000 # CA GRA
100 100 1 0.000000 19.851999 11.052217 0.000000 # CA GRA
101 101 1 0.000000 0.709000 12.280240 0.000000 # CA GRA
102 102 1 0.000000 0.000000 13.508265 0.000000 # CA GRA
103 103 1 0.000000 2.127000 12.280240 0.000000 # CA GRA
104 104 1 0.000000 2.836000 13.508265 0.000000 # CA GRA
105 105 1 0.000000 4.963000 12.280240 0.000000 # CA GRA
106 106 1 0.000000 4.254000 13.508265 0.000000 # CA GRA
107 107 1 0.000000 6.381000 12.280240 0.000000 # CA GRA
108 108 1 0.000000 7.090000 13.508265 0.000000 # CA GRA
109 109 1 0.000000 9.217000 12.280240 0.000000 # CA GRA
110 110 1 0.000000 8.507999 13.508265 0.000000 # CA GRA
111 111 1 0.000000 10.634999 12.280240 0.000000 # CA GRA
112 112 1 0.000000 11.344000 13.508265 0.000000 # CA GRA
113 113 1 0.000000 13.471000 12.280240 0.000000 # CA GRA
114 114 1 0.000000 12.762000 13.508265 0.000000 # CA GRA
115 115 1 0.000000 14.889000 12.280240 0.000000 # CA GRA
116 116 1 0.000000 15.598000 13.508265 0.000000 # CA GRA
117 117 1 0.000000 17.725000 12.280240 0.000000 # CA GRA
118 118 1 0.000000 17.015999 13.508265 0.000000 # CA GRA
119 119 1 0.000000 19.143000 12.280240 0.000000 # CA GRA
120 120 1 0.000000 19.851999 13.508265 0.000000 # CA GRA
121 121 1 0.000000 0.709000 14.736288 0.000000 # CA GRA
122 122 1 0.000000 0.000000 15.964313 0.000000 # CA GRA
123 123 1 0.000000 2.127000 14.736288 0.000000 # CA GRA
124 124 1 0.000000 2.836000 15.964313 0.000000 # CA GRA
125 125 1 0.000000 4.963000 14.736288 0.000000 # CA GRA
126 126 1 0.000000 4.254000 15.964313 0.000000 # CA GRA
127 127 1 0.000000 6.381000 14.736288 0.000000 # CA GRA
128 128 1 0.000000 7.090000 15.964313 0.000000 # CA GRA
129 129 1 0.000000 9.217000 14.736288 0.000000 # CA GRA
130 130 1 0.000000 8.507999 15.964313 0.000000 # CA GRA
131 131 1 0.000000 10.634999 14.736288 0.000000 # CA GRA
132 132 1 0.000000 11.344000 15.964313 0.000000 # CA GRA
133 133 1 0.000000 13.471000 14.736288 0.000000 # CA GRA
134 134 1 0.000000 12.762000 15.964313 0.000000 # CA GRA
135 135 1 0.000000 14.889000 14.736288 0.000000 # CA GRA
136 136 1 0.000000 15.598000 15.964313 0.000000 # CA GRA
137 137 1 0.000000 17.725000 14.736288 0.000000 # CA GRA
138 138 1 0.000000 17.015999 15.964313 0.000000 # CA GRA
139 139 1 0.000000 19.143000 14.736288 0.000000 # CA GRA
140 140 1 0.000000 19.851999 15.964313 0.000000 # CA GRA
141 141 1 0.000000 0.709000 17.192337 0.000000 # CA GRA
142 142 1 0.000000 0.000000 18.420361 0.000000 # CA GRA
143 143 1 0.000000 2.127000 17.192337 0.000000 # CA GRA
144 144 1 0.000000 2.836000 18.420361 0.000000 # CA GRA
145 145 1 0.000000 4.963000 17.192337 0.000000 # CA GRA
146 146 1 0.000000 4.254000 18.420361 0.000000 # CA GRA
147 147 1 0.000000 6.381000 17.192337 0.000000 # CA GRA
148 148 1 0.000000 7.090000 18.420361 0.000000 # CA GRA
149 149 1 0.000000 9.217000 17.192337 0.000000 # CA GRA
150 150 1 0.000000 8.507999 18.420361 0.000000 # CA GRA
151 151 1 0.000000 10.634999 17.192337 0.000000 # CA GRA
152 152 1 0.000000 11.344000 18.420361 0.000000 # CA GRA
153 153 1 0.000000 13.471000 17.192337 0.000000 # CA GRA
154 154 1 0.000000 12.762000 18.420361 0.000000 # CA GRA
155 155 1 0.000000 14.889000 17.192337 0.000000 # CA GRA
156 156 1 0.000000 15.598000 18.420361 0.000000 # CA GRA
157 157 1 0.000000 17.725000 17.192337 0.000000 # CA GRA
158 158 1 0.000000 17.015999 18.420361 0.000000 # CA GRA
159 159 1 0.000000 19.143000 17.192337 0.000000 # CA GRA
160 160 1 0.000000 19.851999 18.420361 0.000000 # CA GRA
161 161 1 0.000000 0.709000 19.648384 0.000000 # CA GRA
162 162 1 0.000000 0.000000 20.876408 0.000000 # CA GRA
163 163 1 0.000000 2.127000 19.648384 0.000000 # CA GRA
164 164 1 0.000000 2.836000 20.876408 0.000000 # CA GRA
165 165 1 0.000000 4.963000 19.648384 0.000000 # CA GRA
166 166 1 0.000000 4.254000 20.876408 0.000000 # CA GRA
167 167 1 0.000000 6.381000 19.648384 0.000000 # CA GRA
168 168 1 0.000000 7.090000 20.876408 0.000000 # CA GRA
169 169 1 0.000000 9.217000 19.648384 0.000000 # CA GRA
170 170 1 0.000000 8.507999 20.876408 0.000000 # CA GRA
171 171 1 0.000000 10.634999 19.648384 0.000000 # CA GRA
172 172 1 0.000000 11.344000 20.876408 0.000000 # CA GRA
173 173 1 0.000000 13.471000 19.648384 0.000000 # CA GRA
174 174 1 0.000000 12.762000 20.876408 0.000000 # CA GRA
175 175 1 0.000000 14.889000 19.648384 0.000000 # CA GRA
176 176 1 0.000000 15.598000 20.876408 0.000000 # CA GRA
177 177 1 0.000000 17.725000 19.648384 0.000000 # CA GRA
178 178 1 0.000000 17.015999 20.876408 0.000000 # CA GRA
179 179 1 0.000000 19.143000 19.648384 0.000000 # CA GRA
180 180 1 0.000000 19.851999 20.876408 0.000000 # CA GRA

