LAMMPS data file. CGCMM style. atom_style full generated by VMD/TopoTools v1.7 on Tue Jul 25 08:15:34 IST 2017
 3936 atoms
 0 bonds
 0 angles
 0 dihedrals
 0 impropers
 1 atom types
 0 bond types
 0 angle types
 0 dihedral types
 0 improper types
  0.0000 102.0980  xlo xhi
  0.0000 100.6997  ylo yhi
  -5.0000 5.0000  zlo zhi

# Pair Coeffs
#
# 1  CA

 Masses

 1 12.010700 # CA

 Atoms # full

1 1 1 0.000000 0.709000 0.000000 0.000000 # CA GRA
2 2 1 0.000000 0.000000 1.228024 0.000000 # CA GRA
3 3 1 0.000000 2.127000 0.000000 0.000000 # CA GRA
4 4 1 0.000000 2.836000 1.228024 0.000000 # CA GRA
5 5 1 0.000000 4.963000 0.000000 0.000000 # CA GRA
6 6 1 0.000000 4.254000 1.228024 0.000000 # CA GRA
7 7 1 0.000000 6.381000 0.000000 0.000000 # CA GRA
8 8 1 0.000000 7.090000 1.228024 0.000000 # CA GRA
9 9 1 0.000000 9.217000 0.000000 0.000000 # CA GRA
10 10 1 0.000000 8.507999 1.228024 0.000000 # CA GRA
11 11 1 0.000000 10.634999 0.000000 0.000000 # CA GRA
12 12 1 0.000000 11.344000 1.228024 0.000000 # CA GRA
13 13 1 0.000000 13.471000 0.000000 0.000000 # CA GRA
14 14 1 0.000000 12.762000 1.228024 0.000000 # CA GRA
15 15 1 0.000000 14.889000 0.000000 0.000000 # CA GRA
16 16 1 0.000000 15.598000 1.228024 0.000000 # CA GRA
17 17 1 0.000000 17.725000 0.000000 0.000000 # CA GRA
18 18 1 0.000000 17.015999 1.228024 0.000000 # CA GRA
19 19 1 0.000000 19.143000 0.000000 0.000000 # CA GRA
20 20 1 0.000000 19.851999 1.228024 0.000000 # CA GRA
21 21 1 0.000000 21.979000 0.000000 0.000000 # CA GRA
22 22 1 0.000000 21.270000 1.228024 0.000000 # CA GRA
23 23 1 0.000000 23.396999 0.000000 0.000000 # CA GRA
24 24 1 0.000000 24.105999 1.228024 0.000000 # CA GRA
25 25 1 0.000000 26.233000 0.000000 0.000000 # CA GRA
26 26 1 0.000000 25.524000 1.228024 0.000000 # CA GRA
27 27 1 0.000000 27.650999 0.000000 0.000000 # CA GRA
28 28 1 0.000000 28.359999 1.228024 0.000000 # CA GRA
29 29 1 0.000000 30.487000 0.000000 0.000000 # CA GRA
30 30 1 0.000000 29.778000 1.228024 0.000000 # CA GRA
31 31 1 0.000000 31.904999 0.000000 0.000000 # CA GRA
32 32 1 0.000000 32.614002 1.228024 0.000000 # CA GRA
33 33 1 0.000000 34.741001 0.000000 0.000000 # CA GRA
34 34 1 0.000000 34.032001 1.228024 0.000000 # CA GRA
35 35 1 0.000000 36.159000 0.000000 0.000000 # CA GRA
36 36 1 0.000000 36.868000 1.228024 0.000000 # CA GRA
37 37 1 0.000000 38.994999 0.000000 0.000000 # CA GRA
38 38 1 0.000000 38.285999 1.228024 0.000000 # CA GRA
39 39 1 0.000000 40.412998 0.000000 0.000000 # CA GRA
40 40 1 0.000000 41.121998 1.228024 0.000000 # CA GRA
41 41 1 0.000000 43.249001 0.000000 0.000000 # CA GRA
42 42 1 0.000000 42.540001 1.228024 0.000000 # CA GRA
43 43 1 0.000000 44.667000 0.000000 0.000000 # CA GRA
44 44 1 0.000000 45.375999 1.228024 0.000000 # CA GRA
45 45 1 0.000000 47.502998 0.000000 0.000000 # CA GRA
46 46 1 0.000000 46.793999 1.228024 0.000000 # CA GRA
47 47 1 0.000000 48.921001 0.000000 0.000000 # CA GRA
48 48 1 0.000000 49.630001 1.228024 0.000000 # CA GRA
49 49 1 0.000000 51.757000 0.000000 0.000000 # CA GRA
50 50 1 0.000000 51.048000 1.228024 0.000000 # CA GRA
51 51 1 0.000000 53.174999 0.000000 0.000000 # CA GRA
52 52 1 0.000000 53.883999 1.228024 0.000000 # CA GRA
53 53 1 0.000000 56.010998 0.000000 0.000000 # CA GRA
54 54 1 0.000000 55.301998 1.228024 0.000000 # CA GRA
55 55 1 0.000000 57.429001 0.000000 0.000000 # CA GRA
56 56 1 0.000000 58.138000 1.228024 0.000000 # CA GRA
57 57 1 0.000000 60.264999 0.000000 0.000000 # CA GRA
58 58 1 0.000000 59.556000 1.228024 0.000000 # CA GRA
59 59 1 0.000000 61.682999 0.000000 0.000000 # CA GRA
60 60 1 0.000000 62.391998 1.228024 0.000000 # CA GRA
61 61 1 0.000000 64.519005 0.000000 0.000000 # CA GRA
62 62 1 0.000000 63.810001 1.228024 0.000000 # CA GRA
63 63 1 0.000000 65.936996 0.000000 0.000000 # CA GRA
64 64 1 0.000000 66.645996 1.228024 0.000000 # CA GRA
65 65 1 0.000000 68.773003 0.000000 0.000000 # CA GRA
66 66 1 0.000000 68.064003 1.228024 0.000000 # CA GRA
67 67 1 0.000000 70.191002 0.000000 0.000000 # CA GRA
68 68 1 0.000000 70.900002 1.228024 0.000000 # CA GRA
69 69 1 0.000000 73.027000 0.000000 0.000000 # CA GRA
70 70 1 0.000000 72.318001 1.228024 0.000000 # CA GRA
71 71 1 0.000000 74.445000 0.000000 0.000000 # CA GRA
72 72 1 0.000000 75.153999 1.228024 0.000000 # CA GRA
73 73 1 0.000000 77.280998 0.000000 0.000000 # CA GRA
74 74 1 0.000000 76.571999 1.228024 0.000000 # CA GRA
75 75 1 0.000000 78.698997 0.000000 0.000000 # CA GRA
76 76 1 0.000000 79.407997 1.228024 0.000000 # CA GRA
77 77 1 0.000000 81.534996 0.000000 0.000000 # CA GRA
78 78 1 0.000000 80.825996 1.228024 0.000000 # CA GRA
79 79 1 0.000000 82.953003 0.000000 0.000000 # CA GRA
80 80 1 0.000000 83.662003 1.228024 0.000000 # CA GRA
81 81 1 0.000000 85.789001 0.000000 0.000000 # CA GRA
82 82 1 0.000000 85.080002 1.228024 0.000000 # CA GRA
83 83 1 0.000000 87.207001 0.000000 0.000000 # CA GRA
84 84 1 0.000000 87.916000 1.228024 0.000000 # CA GRA
85 85 1 0.000000 90.042999 0.000000 0.000000 # CA GRA
86 86 1 0.000000 89.334000 1.228024 0.000000 # CA GRA
87 87 1 0.000000 91.460999 0.000000 0.000000 # CA GRA
88 88 1 0.000000 92.169998 1.228024 0.000000 # CA GRA
89 89 1 0.000000 94.296997 0.000000 0.000000 # CA GRA
90 90 1 0.000000 93.587997 1.228024 0.000000 # CA GRA
91 91 1 0.000000 95.714996 0.000000 0.000000 # CA GRA
92 92 1 0.000000 96.423996 1.228024 0.000000 # CA GRA
93 93 1 0.000000 98.551003 0.000000 0.000000 # CA GRA
94 94 1 0.000000 97.842003 1.228024 0.000000 # CA GRA
95 95 1 0.000000 99.969002 0.000000 0.000000 # CA GRA
96 96 1 0.000000 100.678001 1.228024 0.000000 # CA GRA
97 97 1 0.000000 0.709000 2.456048 0.000000 # CA GRA
98 98 1 0.000000 0.000000 3.684072 0.000000 # CA GRA
99 99 1 0.000000 2.127000 2.456048 0.000000 # CA GRA
100 100 1 0.000000 2.836000 3.684072 0.000000 # CA GRA
101 101 1 0.000000 4.963000 2.456048 0.000000 # CA GRA
102 102 1 0.000000 4.254000 3.684072 0.000000 # CA GRA
103 103 1 0.000000 6.381000 2.456048 0.000000 # CA GRA
104 104 1 0.000000 7.090000 3.684072 0.000000 # CA GRA
105 105 1 0.000000 9.217000 2.456048 0.000000 # CA GRA
106 106 1 0.000000 8.507999 3.684072 0.000000 # CA GRA
107 107 1 0.000000 10.634999 2.456048 0.000000 # CA GRA
108 108 1 0.000000 11.344000 3.684072 0.000000 # CA GRA
109 109 1 0.000000 13.471000 2.456048 0.000000 # CA GRA
110 110 1 0.000000 12.762000 3.684072 0.000000 # CA GRA
111 111 1 0.000000 14.889000 2.456048 0.000000 # CA GRA
112 112 1 0.000000 15.598000 3.684072 0.000000 # CA GRA
113 113 1 0.000000 17.725000 2.456048 0.000000 # CA GRA
114 114 1 0.000000 17.015999 3.684072 0.000000 # CA GRA
115 115 1 0.000000 19.143000 2.456048 0.000000 # CA GRA
116 116 1 0.000000 19.851999 3.684072 0.000000 # CA GRA
117 117 1 0.000000 21.979000 2.456048 0.000000 # CA GRA
118 118 1 0.000000 21.270000 3.684072 0.000000 # CA GRA
119 119 1 0.000000 23.396999 2.456048 0.000000 # CA GRA
120 120 1 0.000000 24.105999 3.684072 0.000000 # CA GRA
121 121 1 0.000000 26.233000 2.456048 0.000000 # CA GRA
122 122 1 0.000000 25.524000 3.684072 0.000000 # CA GRA
123 123 1 0.000000 27.650999 2.456048 0.000000 # CA GRA
124 124 1 0.000000 28.359999 3.684072 0.000000 # CA GRA
125 125 1 0.000000 30.487000 2.456048 0.000000 # CA GRA
126 126 1 0.000000 29.778000 3.684072 0.000000 # CA GRA
127 127 1 0.000000 31.904999 2.456048 0.000000 # CA GRA
128 128 1 0.000000 32.614002 3.684072 0.000000 # CA GRA
129 129 1 0.000000 34.741001 2.456048 0.000000 # CA GRA
130 130 1 0.000000 34.032001 3.684072 0.000000 # CA GRA
131 131 1 0.000000 36.159000 2.456048 0.000000 # CA GRA
132 132 1 0.000000 36.868000 3.684072 0.000000 # CA GRA
133 133 1 0.000000 38.994999 2.456048 0.000000 # CA GRA
134 134 1 0.000000 38.285999 3.684072 0.000000 # CA GRA
135 135 1 0.000000 40.412998 2.456048 0.000000 # CA GRA
136 136 1 0.000000 41.121998 3.684072 0.000000 # CA GRA
137 137 1 0.000000 43.249001 2.456048 0.000000 # CA GRA
138 138 1 0.000000 42.540001 3.684072 0.000000 # CA GRA
139 139 1 0.000000 44.667000 2.456048 0.000000 # CA GRA
140 140 1 0.000000 45.375999 3.684072 0.000000 # CA GRA
141 141 1 0.000000 47.502998 2.456048 0.000000 # CA GRA
142 142 1 0.000000 46.793999 3.684072 0.000000 # CA GRA
143 143 1 0.000000 48.921001 2.456048 0.000000 # CA GRA
144 144 1 0.000000 49.630001 3.684072 0.000000 # CA GRA
145 145 1 0.000000 51.757000 2.456048 0.000000 # CA GRA
146 146 1 0.000000 51.048000 3.684072 0.000000 # CA GRA
147 147 1 0.000000 53.174999 2.456048 0.000000 # CA GRA
148 148 1 0.000000 53.883999 3.684072 0.000000 # CA GRA
149 149 1 0.000000 56.010998 2.456048 0.000000 # CA GRA
150 150 1 0.000000 55.301998 3.684072 0.000000 # CA GRA
151 151 1 0.000000 57.429001 2.456048 0.000000 # CA GRA
152 152 1 0.000000 58.138000 3.684072 0.000000 # CA GRA
153 153 1 0.000000 60.264999 2.456048 0.000000 # CA GRA
154 154 1 0.000000 59.556000 3.684072 0.000000 # CA GRA
155 155 1 0.000000 61.682999 2.456048 0.000000 # CA GRA
156 156 1 0.000000 62.391998 3.684072 0.000000 # CA GRA
157 157 1 0.000000 64.519005 2.456048 0.000000 # CA GRA
158 158 1 0.000000 63.810001 3.684072 0.000000 # CA GRA
159 159 1 0.000000 65.936996 2.456048 0.000000 # CA GRA
160 160 1 0.000000 66.645996 3.684072 0.000000 # CA GRA
161 161 1 0.000000 68.773003 2.456048 0.000000 # CA GRA
162 162 1 0.000000 68.064003 3.684072 0.000000 # CA GRA
163 163 1 0.000000 70.191002 2.456048 0.000000 # CA GRA
164 164 1 0.000000 70.900002 3.684072 0.000000 # CA GRA
165 165 1 0.000000 73.027000 2.456048 0.000000 # CA GRA
166 166 1 0.000000 72.318001 3.684072 0.000000 # CA GRA
167 167 1 0.000000 74.445000 2.456048 0.000000 # CA GRA
168 168 1 0.000000 75.153999 3.684072 0.000000 # CA GRA
169 169 1 0.000000 77.280998 2.456048 0.000000 # CA GRA
170 170 1 0.000000 76.571999 3.684072 0.000000 # CA GRA
171 171 1 0.000000 78.698997 2.456048 0.000000 # CA GRA
172 172 1 0.000000 79.407997 3.684072 0.000000 # CA GRA
173 173 1 0.000000 81.534996 2.456048 0.000000 # CA GRA
174 174 1 0.000000 80.825996 3.684072 0.000000 # CA GRA
175 175 1 0.000000 82.953003 2.456048 0.000000 # CA GRA
176 176 1 0.000000 83.662003 3.684072 0.000000 # CA GRA
177 177 1 0.000000 85.789001 2.456048 0.000000 # CA GRA
178 178 1 0.000000 85.080002 3.684072 0.000000 # CA GRA
179 179 1 0.000000 87.207001 2.456048 0.000000 # CA GRA
180 180 1 0.000000 87.916000 3.684072 0.000000 # CA GRA
181 181 1 0.000000 90.042999 2.456048 0.000000 # CA GRA
182 182 1 0.000000 89.334000 3.684072 0.000000 # CA GRA
183 183 1 0.000000 91.460999 2.456048 0.000000 # CA GRA
184 184 1 0.000000 92.169998 3.684072 0.000000 # CA GRA
185 185 1 0.000000 94.296997 2.456048 0.000000 # CA GRA
186 186 1 0.000000 93.587997 3.684072 0.000000 # CA GRA
187 187 1 0.000000 95.714996 2.456048 0.000000 # CA GRA
188 188 1 0.000000 96.423996 3.684072 0.000000 # CA GRA
189 189 1 0.000000 98.551003 2.456048 0.000000 # CA GRA
190 190 1 0.000000 97.842003 3.684072 0.000000 # CA GRA
191 191 1 0.000000 99.969002 2.456048 0.000000 # CA GRA
192 192 1 0.000000 100.678001 3.684072 0.000000 # CA GRA
193 193 1 0.000000 0.709000 4.912096 0.000000 # CA GRA
194 194 1 0.000000 0.000000 6.140120 0.000000 # CA GRA
195 195 1 0.000000 2.127000 4.912096 0.000000 # CA GRA
196 196 1 0.000000 2.836000 6.140120 0.000000 # CA GRA
197 197 1 0.000000 4.963000 4.912096 0.000000 # CA GRA
198 198 1 0.000000 4.254000 6.140120 0.000000 # CA GRA
199 199 1 0.000000 6.381000 4.912096 0.000000 # CA GRA
200 200 1 0.000000 7.090000 6.140120 0.000000 # CA GRA
201 201 1 0.000000 9.217000 4.912096 0.000000 # CA GRA
202 202 1 0.000000 8.507999 6.140120 0.000000 # CA GRA
203 203 1 0.000000 10.634999 4.912096 0.000000 # CA GRA
204 204 1 0.000000 11.344000 6.140120 0.000000 # CA GRA
205 205 1 0.000000 13.471000 4.912096 0.000000 # CA GRA
206 206 1 0.000000 12.762000 6.140120 0.000000 # CA GRA
207 207 1 0.000000 14.889000 4.912096 0.000000 # CA GRA
208 208 1 0.000000 15.598000 6.140120 0.000000 # CA GRA
209 209 1 0.000000 17.725000 4.912096 0.000000 # CA GRA
210 210 1 0.000000 17.015999 6.140120 0.000000 # CA GRA
211 211 1 0.000000 19.143000 4.912096 0.000000 # CA GRA
212 212 1 0.000000 19.851999 6.140120 0.000000 # CA GRA
213 213 1 0.000000 21.979000 4.912096 0.000000 # CA GRA
214 214 1 0.000000 21.270000 6.140120 0.000000 # CA GRA
215 215 1 0.000000 23.396999 4.912096 0.000000 # CA GRA
216 216 1 0.000000 24.105999 6.140120 0.000000 # CA GRA
217 217 1 0.000000 26.233000 4.912096 0.000000 # CA GRA
218 218 1 0.000000 25.524000 6.140120 0.000000 # CA GRA
219 219 1 0.000000 27.650999 4.912096 0.000000 # CA GRA
220 220 1 0.000000 28.359999 6.140120 0.000000 # CA GRA
221 221 1 0.000000 30.487000 4.912096 0.000000 # CA GRA
222 222 1 0.000000 29.778000 6.140120 0.000000 # CA GRA
223 223 1 0.000000 31.904999 4.912096 0.000000 # CA GRA
224 224 1 0.000000 32.614002 6.140120 0.000000 # CA GRA
225 225 1 0.000000 34.741001 4.912096 0.000000 # CA GRA
226 226 1 0.000000 34.032001 6.140120 0.000000 # CA GRA
227 227 1 0.000000 36.159000 4.912096 0.000000 # CA GRA
228 228 1 0.000000 36.868000 6.140120 0.000000 # CA GRA
229 229 1 0.000000 38.994999 4.912096 0.000000 # CA GRA
230 230 1 0.000000 38.285999 6.140120 0.000000 # CA GRA
231 231 1 0.000000 40.412998 4.912096 0.000000 # CA GRA
232 232 1 0.000000 41.121998 6.140120 0.000000 # CA GRA
233 233 1 0.000000 43.249001 4.912096 0.000000 # CA GRA
234 234 1 0.000000 42.540001 6.140120 0.000000 # CA GRA
235 235 1 0.000000 44.667000 4.912096 0.000000 # CA GRA
236 236 1 0.000000 45.375999 6.140120 0.000000 # CA GRA
237 237 1 0.000000 47.502998 4.912096 0.000000 # CA GRA
238 238 1 0.000000 46.793999 6.140120 0.000000 # CA GRA
239 239 1 0.000000 48.921001 4.912096 0.000000 # CA GRA
240 240 1 0.000000 49.630001 6.140120 0.000000 # CA GRA
241 241 1 0.000000 51.757000 4.912096 0.000000 # CA GRA
242 242 1 0.000000 51.048000 6.140120 0.000000 # CA GRA
243 243 1 0.000000 53.174999 4.912096 0.000000 # CA GRA
244 244 1 0.000000 53.883999 6.140120 0.000000 # CA GRA
245 245 1 0.000000 56.010998 4.912096 0.000000 # CA GRA
246 246 1 0.000000 55.301998 6.140120 0.000000 # CA GRA
247 247 1 0.000000 57.429001 4.912096 0.000000 # CA GRA
248 248 1 0.000000 58.138000 6.140120 0.000000 # CA GRA
249 249 1 0.000000 60.264999 4.912096 0.000000 # CA GRA
250 250 1 0.000000 59.556000 6.140120 0.000000 # CA GRA
251 251 1 0.000000 61.682999 4.912096 0.000000 # CA GRA
252 252 1 0.000000 62.391998 6.140120 0.000000 # CA GRA
253 253 1 0.000000 64.519005 4.912096 0.000000 # CA GRA
254 254 1 0.000000 63.810001 6.140120 0.000000 # CA GRA
255 255 1 0.000000 65.936996 4.912096 0.000000 # CA GRA
256 256 1 0.000000 66.645996 6.140120 0.000000 # CA GRA
257 257 1 0.000000 68.773003 4.912096 0.000000 # CA GRA
258 258 1 0.000000 68.064003 6.140120 0.000000 # CA GRA
259 259 1 0.000000 70.191002 4.912096 0.000000 # CA GRA
260 260 1 0.000000 70.900002 6.140120 0.000000 # CA GRA
261 261 1 0.000000 73.027000 4.912096 0.000000 # CA GRA
262 262 1 0.000000 72.318001 6.140120 0.000000 # CA GRA
263 263 1 0.000000 74.445000 4.912096 0.000000 # CA GRA
264 264 1 0.000000 75.153999 6.140120 0.000000 # CA GRA
265 265 1 0.000000 77.280998 4.912096 0.000000 # CA GRA
266 266 1 0.000000 76.571999 6.140120 0.000000 # CA GRA
267 267 1 0.000000 78.698997 4.912096 0.000000 # CA GRA
268 268 1 0.000000 79.407997 6.140120 0.000000 # CA GRA
269 269 1 0.000000 81.534996 4.912096 0.000000 # CA GRA
270 270 1 0.000000 80.825996 6.140120 0.000000 # CA GRA
271 271 1 0.000000 82.953003 4.912096 0.000000 # CA GRA
272 272 1 0.000000 83.662003 6.140120 0.000000 # CA GRA
273 273 1 0.000000 85.789001 4.912096 0.000000 # CA GRA
274 274 1 0.000000 85.080002 6.140120 0.000000 # CA GRA
275 275 1 0.000000 87.207001 4.912096 0.000000 # CA GRA
276 276 1 0.000000 87.916000 6.140120 0.000000 # CA GRA
277 277 1 0.000000 90.042999 4.912096 0.000000 # CA GRA
278 278 1 0.000000 89.334000 6.140120 0.000000 # CA GRA
279 279 1 0.000000 91.460999 4.912096 0.000000 # CA GRA
280 280 1 0.000000 92.169998 6.140120 0.000000 # CA GRA
281 281 1 0.000000 94.296997 4.912096 0.000000 # CA GRA
282 282 1 0.000000 93.587997 6.140120 0.000000 # CA GRA
283 283 1 0.000000 95.714996 4.912096 0.000000 # CA GRA
284 284 1 0.000000 96.423996 6.140120 0.000000 # CA GRA
285 285 1 0.000000 98.551003 4.912096 0.000000 # CA GRA
286 286 1 0.000000 97.842003 6.140120 0.000000 # CA GRA
287 287 1 0.000000 99.969002 4.912096 0.000000 # CA GRA
288 288 1 0.000000 100.678001 6.140120 0.000000 # CA GRA
289 289 1 0.000000 0.709000 7.368144 0.000000 # CA GRA
290 290 1 0.000000 0.000000 8.596169 0.000000 # CA GRA
291 291 1 0.000000 2.127000 7.368144 0.000000 # CA GRA
292 292 1 0.000000 2.836000 8.596169 0.000000 # CA GRA
293 293 1 0.000000 4.963000 7.368144 0.000000 # CA GRA
294 294 1 0.000000 4.254000 8.596169 0.000000 # CA GRA
295 295 1 0.000000 6.381000 7.368144 0.000000 # CA GRA
296 296 1 0.000000 7.090000 8.596169 0.000000 # CA GRA
297 297 1 0.000000 9.217000 7.368144 0.000000 # CA GRA
298 298 1 0.000000 8.507999 8.596169 0.000000 # CA GRA
299 299 1 0.000000 10.634999 7.368144 0.000000 # CA GRA
300 300 1 0.000000 11.344000 8.596169 0.000000 # CA GRA
301 301 1 0.000000 13.471000 7.368144 0.000000 # CA GRA
302 302 1 0.000000 12.762000 8.596169 0.000000 # CA GRA
303 303 1 0.000000 14.889000 7.368144 0.000000 # CA GRA
304 304 1 0.000000 15.598000 8.596169 0.000000 # CA GRA
305 305 1 0.000000 17.725000 7.368144 0.000000 # CA GRA
306 306 1 0.000000 17.015999 8.596169 0.000000 # CA GRA
307 307 1 0.000000 19.143000 7.368144 0.000000 # CA GRA
308 308 1 0.000000 19.851999 8.596169 0.000000 # CA GRA
309 309 1 0.000000 21.979000 7.368144 0.000000 # CA GRA
310 310 1 0.000000 21.270000 8.596169 0.000000 # CA GRA
311 311 1 0.000000 23.396999 7.368144 0.000000 # CA GRA
312 312 1 0.000000 24.105999 8.596169 0.000000 # CA GRA
313 313 1 0.000000 26.233000 7.368144 0.000000 # CA GRA
314 314 1 0.000000 25.524000 8.596169 0.000000 # CA GRA
315 315 1 0.000000 27.650999 7.368144 0.000000 # CA GRA
316 316 1 0.000000 28.359999 8.596169 0.000000 # CA GRA
317 317 1 0.000000 30.487000 7.368144 0.000000 # CA GRA
318 318 1 0.000000 29.778000 8.596169 0.000000 # CA GRA
319 319 1 0.000000 31.904999 7.368144 0.000000 # CA GRA
320 320 1 0.000000 32.614002 8.596169 0.000000 # CA GRA
321 321 1 0.000000 34.741001 7.368144 0.000000 # CA GRA
322 322 1 0.000000 34.032001 8.596169 0.000000 # CA GRA
323 323 1 0.000000 36.159000 7.368144 0.000000 # CA GRA
324 324 1 0.000000 36.868000 8.596169 0.000000 # CA GRA
325 325 1 0.000000 38.994999 7.368144 0.000000 # CA GRA
326 326 1 0.000000 38.285999 8.596169 0.000000 # CA GRA
327 327 1 0.000000 40.412998 7.368144 0.000000 # CA GRA
328 328 1 0.000000 41.121998 8.596169 0.000000 # CA GRA
329 329 1 0.000000 43.249001 7.368144 0.000000 # CA GRA
330 330 1 0.000000 42.540001 8.596169 0.000000 # CA GRA
331 331 1 0.000000 44.667000 7.368144 0.000000 # CA GRA
332 332 1 0.000000 45.375999 8.596169 0.000000 # CA GRA
333 333 1 0.000000 47.502998 7.368144 0.000000 # CA GRA
334 334 1 0.000000 46.793999 8.596169 0.000000 # CA GRA
335 335 1 0.000000 48.921001 7.368144 0.000000 # CA GRA
336 336 1 0.000000 49.630001 8.596169 0.000000 # CA GRA
337 337 1 0.000000 51.757000 7.368144 0.000000 # CA GRA
338 338 1 0.000000 51.048000 8.596169 0.000000 # CA GRA
339 339 1 0.000000 53.174999 7.368144 0.000000 # CA GRA
340 340 1 0.000000 53.883999 8.596169 0.000000 # CA GRA
341 341 1 0.000000 56.010998 7.368144 0.000000 # CA GRA
342 342 1 0.000000 55.301998 8.596169 0.000000 # CA GRA
343 343 1 0.000000 57.429001 7.368144 0.000000 # CA GRA
344 344 1 0.000000 58.138000 8.596169 0.000000 # CA GRA
345 345 1 0.000000 60.264999 7.368144 0.000000 # CA GRA
346 346 1 0.000000 59.556000 8.596169 0.000000 # CA GRA
347 347 1 0.000000 61.682999 7.368144 0.000000 # CA GRA
348 348 1 0.000000 62.391998 8.596169 0.000000 # CA GRA
349 349 1 0.000000 64.519005 7.368144 0.000000 # CA GRA
350 350 1 0.000000 63.810001 8.596169 0.000000 # CA GRA
351 351 1 0.000000 65.936996 7.368144 0.000000 # CA GRA
352 352 1 0.000000 66.645996 8.596169 0.000000 # CA GRA
353 353 1 0.000000 68.773003 7.368144 0.000000 # CA GRA
354 354 1 0.000000 68.064003 8.596169 0.000000 # CA GRA
355 355 1 0.000000 70.191002 7.368144 0.000000 # CA GRA
356 356 1 0.000000 70.900002 8.596169 0.000000 # CA GRA
357 357 1 0.000000 73.027000 7.368144 0.000000 # CA GRA
358 358 1 0.000000 72.318001 8.596169 0.000000 # CA GRA
359 359 1 0.000000 74.445000 7.368144 0.000000 # CA GRA
360 360 1 0.000000 75.153999 8.596169 0.000000 # CA GRA
361 361 1 0.000000 77.280998 7.368144 0.000000 # CA GRA
362 362 1 0.000000 76.571999 8.596169 0.000000 # CA GRA
363 363 1 0.000000 78.698997 7.368144 0.000000 # CA GRA
364 364 1 0.000000 79.407997 8.596169 0.000000 # CA GRA
365 365 1 0.000000 81.534996 7.368144 0.000000 # CA GRA
366 366 1 0.000000 80.825996 8.596169 0.000000 # CA GRA
367 367 1 0.000000 82.953003 7.368144 0.000000 # CA GRA
368 368 1 0.000000 83.662003 8.596169 0.000000 # CA GRA
369 369 1 0.000000 85.789001 7.368144 0.000000 # CA GRA
370 370 1 0.000000 85.080002 8.596169 0.000000 # CA GRA
371 371 1 0.000000 87.207001 7.368144 0.000000 # CA GRA
372 372 1 0.000000 87.916000 8.596169 0.000000 # CA GRA
373 373 1 0.000000 90.042999 7.368144 0.000000 # CA GRA
374 374 1 0.000000 89.334000 8.596169 0.000000 # CA GRA
375 375 1 0.000000 91.460999 7.368144 0.000000 # CA GRA
376 376 1 0.000000 92.169998 8.596169 0.000000 # CA GRA
377 377 1 0.000000 94.296997 7.368144 0.000000 # CA GRA
378 378 1 0.000000 93.587997 8.596169 0.000000 # CA GRA
379 379 1 0.000000 95.714996 7.368144 0.000000 # CA GRA
380 380 1 0.000000 96.423996 8.596169 0.000000 # CA GRA
381 381 1 0.000000 98.551003 7.368144 0.000000 # CA GRA
382 382 1 0.000000 97.842003 8.596169 0.000000 # CA GRA
383 383 1 0.000000 99.969002 7.368144 0.000000 # CA GRA
384 384 1 0.000000 100.678001 8.596169 0.000000 # CA GRA
385 385 1 0.000000 0.709000 9.824192 0.000000 # CA GRA
386 386 1 0.000000 0.000000 11.052217 0.000000 # CA GRA
387 387 1 0.000000 2.127000 9.824192 0.000000 # CA GRA
388 388 1 0.000000 2.836000 11.052217 0.000000 # CA GRA
389 389 1 0.000000 4.963000 9.824192 0.000000 # CA GRA
390 390 1 0.000000 4.254000 11.052217 0.000000 # CA GRA
391 391 1 0.000000 6.381000 9.824192 0.000000 # CA GRA
392 392 1 0.000000 7.090000 11.052217 0.000000 # CA GRA
393 393 1 0.000000 9.217000 9.824192 0.000000 # CA GRA
394 394 1 0.000000 8.507999 11.052217 0.000000 # CA GRA
395 395 1 0.000000 10.634999 9.824192 0.000000 # CA GRA
396 396 1 0.000000 11.344000 11.052217 0.000000 # CA GRA
397 397 1 0.000000 13.471000 9.824192 0.000000 # CA GRA
398 398 1 0.000000 12.762000 11.052217 0.000000 # CA GRA
399 399 1 0.000000 14.889000 9.824192 0.000000 # CA GRA
400 400 1 0.000000 15.598000 11.052217 0.000000 # CA GRA
401 401 1 0.000000 17.725000 9.824192 0.000000 # CA GRA
402 402 1 0.000000 17.015999 11.052217 0.000000 # CA GRA
403 403 1 0.000000 19.143000 9.824192 0.000000 # CA GRA
404 404 1 0.000000 19.851999 11.052217 0.000000 # CA GRA
405 405 1 0.000000 21.979000 9.824192 0.000000 # CA GRA
406 406 1 0.000000 21.270000 11.052217 0.000000 # CA GRA
407 407 1 0.000000 23.396999 9.824192 0.000000 # CA GRA
408 408 1 0.000000 24.105999 11.052217 0.000000 # CA GRA
409 409 1 0.000000 26.233000 9.824192 0.000000 # CA GRA
410 410 1 0.000000 25.524000 11.052217 0.000000 # CA GRA
411 411 1 0.000000 27.650999 9.824192 0.000000 # CA GRA
412 412 1 0.000000 28.359999 11.052217 0.000000 # CA GRA
413 413 1 0.000000 30.487000 9.824192 0.000000 # CA GRA
414 414 1 0.000000 29.778000 11.052217 0.000000 # CA GRA
415 415 1 0.000000 31.904999 9.824192 0.000000 # CA GRA
416 416 1 0.000000 32.614002 11.052217 0.000000 # CA GRA
417 417 1 0.000000 34.741001 9.824192 0.000000 # CA GRA
418 418 1 0.000000 34.032001 11.052217 0.000000 # CA GRA
419 419 1 0.000000 36.159000 9.824192 0.000000 # CA GRA
420 420 1 0.000000 36.868000 11.052217 0.000000 # CA GRA
421 421 1 0.000000 38.994999 9.824192 0.000000 # CA GRA
422 422 1 0.000000 38.285999 11.052217 0.000000 # CA GRA
423 423 1 0.000000 40.412998 9.824192 0.000000 # CA GRA
424 424 1 0.000000 41.121998 11.052217 0.000000 # CA GRA
425 425 1 0.000000 43.249001 9.824192 0.000000 # CA GRA
426 426 1 0.000000 42.540001 11.052217 0.000000 # CA GRA
427 427 1 0.000000 44.667000 9.824192 0.000000 # CA GRA
428 428 1 0.000000 45.375999 11.052217 0.000000 # CA GRA
429 429 1 0.000000 47.502998 9.824192 0.000000 # CA GRA
430 430 1 0.000000 46.793999 11.052217 0.000000 # CA GRA
431 431 1 0.000000 48.921001 9.824192 0.000000 # CA GRA
432 432 1 0.000000 49.630001 11.052217 0.000000 # CA GRA
433 433 1 0.000000 51.757000 9.824192 0.000000 # CA GRA
434 434 1 0.000000 51.048000 11.052217 0.000000 # CA GRA
435 435 1 0.000000 53.174999 9.824192 0.000000 # CA GRA
436 436 1 0.000000 53.883999 11.052217 0.000000 # CA GRA
437 437 1 0.000000 56.010998 9.824192 0.000000 # CA GRA
438 438 1 0.000000 55.301998 11.052217 0.000000 # CA GRA
439 439 1 0.000000 57.429001 9.824192 0.000000 # CA GRA
440 440 1 0.000000 58.138000 11.052217 0.000000 # CA GRA
441 441 1 0.000000 60.264999 9.824192 0.000000 # CA GRA
442 442 1 0.000000 59.556000 11.052217 0.000000 # CA GRA
443 443 1 0.000000 61.682999 9.824192 0.000000 # CA GRA
444 444 1 0.000000 62.391998 11.052217 0.000000 # CA GRA
445 445 1 0.000000 64.519005 9.824192 0.000000 # CA GRA
446 446 1 0.000000 63.810001 11.052217 0.000000 # CA GRA
447 447 1 0.000000 65.936996 9.824192 0.000000 # CA GRA
448 448 1 0.000000 66.645996 11.052217 0.000000 # CA GRA
449 449 1 0.000000 68.773003 9.824192 0.000000 # CA GRA
450 450 1 0.000000 68.064003 11.052217 0.000000 # CA GRA
451 451 1 0.000000 70.191002 9.824192 0.000000 # CA GRA
452 452 1 0.000000 70.900002 11.052217 0.000000 # CA GRA
453 453 1 0.000000 73.027000 9.824192 0.000000 # CA GRA
454 454 1 0.000000 72.318001 11.052217 0.000000 # CA GRA
455 455 1 0.000000 74.445000 9.824192 0.000000 # CA GRA
456 456 1 0.000000 75.153999 11.052217 0.000000 # CA GRA
457 457 1 0.000000 77.280998 9.824192 0.000000 # CA GRA
458 458 1 0.000000 76.571999 11.052217 0.000000 # CA GRA
459 459 1 0.000000 78.698997 9.824192 0.000000 # CA GRA
460 460 1 0.000000 79.407997 11.052217 0.000000 # CA GRA
461 461 1 0.000000 81.534996 9.824192 0.000000 # CA GRA
462 462 1 0.000000 80.825996 11.052217 0.000000 # CA GRA
463 463 1 0.000000 82.953003 9.824192 0.000000 # CA GRA
464 464 1 0.000000 83.662003 11.052217 0.000000 # CA GRA
465 465 1 0.000000 85.789001 9.824192 0.000000 # CA GRA
466 466 1 0.000000 85.080002 11.052217 0.000000 # CA GRA
467 467 1 0.000000 87.207001 9.824192 0.000000 # CA GRA
468 468 1 0.000000 87.916000 11.052217 0.000000 # CA GRA
469 469 1 0.000000 90.042999 9.824192 0.000000 # CA GRA
470 470 1 0.000000 89.334000 11.052217 0.000000 # CA GRA
471 471 1 0.000000 91.460999 9.824192 0.000000 # CA GRA
472 472 1 0.000000 92.169998 11.052217 0.000000 # CA GRA
473 473 1 0.000000 94.296997 9.824192 0.000000 # CA GRA
474 474 1 0.000000 93.587997 11.052217 0.000000 # CA GRA
475 475 1 0.000000 95.714996 9.824192 0.000000 # CA GRA
476 476 1 0.000000 96.423996 11.052217 0.000000 # CA GRA
477 477 1 0.000000 98.551003 9.824192 0.000000 # CA GRA
478 478 1 0.000000 97.842003 11.052217 0.000000 # CA GRA
479 479 1 0.000000 99.969002 9.824192 0.000000 # CA GRA
480 480 1 0.000000 100.678001 11.052217 0.000000 # CA GRA
481 481 1 0.000000 0.709000 12.280240 0.000000 # CA GRA
482 482 1 0.000000 0.000000 13.508265 0.000000 # CA GRA
483 483 1 0.000000 2.127000 12.280240 0.000000 # CA GRA
484 484 1 0.000000 2.836000 13.508265 0.000000 # CA GRA
485 485 1 0.000000 4.963000 12.280240 0.000000 # CA GRA
486 486 1 0.000000 4.254000 13.508265 0.000000 # CA GRA
487 487 1 0.000000 6.381000 12.280240 0.000000 # CA GRA
488 488 1 0.000000 7.090000 13.508265 0.000000 # CA GRA
489 489 1 0.000000 9.217000 12.280240 0.000000 # CA GRA
490 490 1 0.000000 8.507999 13.508265 0.000000 # CA GRA
491 491 1 0.000000 10.634999 12.280240 0.000000 # CA GRA
492 492 1 0.000000 11.344000 13.508265 0.000000 # CA GRA
493 493 1 0.000000 13.471000 12.280240 0.000000 # CA GRA
494 494 1 0.000000 12.762000 13.508265 0.000000 # CA GRA
495 495 1 0.000000 14.889000 12.280240 0.000000 # CA GRA
496 496 1 0.000000 15.598000 13.508265 0.000000 # CA GRA
497 497 1 0.000000 17.725000 12.280240 0.000000 # CA GRA
498 498 1 0.000000 17.015999 13.508265 0.000000 # CA GRA
499 499 1 0.000000 19.143000 12.280240 0.000000 # CA GRA
500 500 1 0.000000 19.851999 13.508265 0.000000 # CA GRA
501 501 1 0.000000 21.979000 12.280240 0.000000 # CA GRA
502 502 1 0.000000 21.270000 13.508265 0.000000 # CA GRA
503 503 1 0.000000 23.396999 12.280240 0.000000 # CA GRA
504 504 1 0.000000 24.105999 13.508265 0.000000 # CA GRA
505 505 1 0.000000 26.233000 12.280240 0.000000 # CA GRA
506 506 1 0.000000 25.524000 13.508265 0.000000 # CA GRA
507 507 1 0.000000 27.650999 12.280240 0.000000 # CA GRA
508 508 1 0.000000 28.359999 13.508265 0.000000 # CA GRA
509 509 1 0.000000 30.487000 12.280240 0.000000 # CA GRA
510 510 1 0.000000 29.778000 13.508265 0.000000 # CA GRA
511 511 1 0.000000 31.904999 12.280240 0.000000 # CA GRA
512 512 1 0.000000 32.614002 13.508265 0.000000 # CA GRA
513 513 1 0.000000 34.741001 12.280240 0.000000 # CA GRA
514 514 1 0.000000 34.032001 13.508265 0.000000 # CA GRA
515 515 1 0.000000 36.159000 12.280240 0.000000 # CA GRA
516 516 1 0.000000 36.868000 13.508265 0.000000 # CA GRA
517 517 1 0.000000 38.994999 12.280240 0.000000 # CA GRA
518 518 1 0.000000 38.285999 13.508265 0.000000 # CA GRA
519 519 1 0.000000 40.412998 12.280240 0.000000 # CA GRA
520 520 1 0.000000 41.121998 13.508265 0.000000 # CA GRA
521 521 1 0.000000 43.249001 12.280240 0.000000 # CA GRA
522 522 1 0.000000 42.540001 13.508265 0.000000 # CA GRA
523 523 1 0.000000 44.667000 12.280240 0.000000 # CA GRA
524 524 1 0.000000 45.375999 13.508265 0.000000 # CA GRA
525 525 1 0.000000 47.502998 12.280240 0.000000 # CA GRA
526 526 1 0.000000 46.793999 13.508265 0.000000 # CA GRA
527 527 1 0.000000 48.921001 12.280240 0.000000 # CA GRA
528 528 1 0.000000 49.630001 13.508265 0.000000 # CA GRA
529 529 1 0.000000 51.757000 12.280240 0.000000 # CA GRA
530 530 1 0.000000 51.048000 13.508265 0.000000 # CA GRA
531 531 1 0.000000 53.174999 12.280240 0.000000 # CA GRA