LAMMPS (17 Nov 2016)
units		real
atom_style	full
boundary	p p p
newton		on

#----------------------------------------------------
#INPUT FILE
#----------------------------------------------------

read_data	inputFiles/graphene.lmpsys
  orthogonal box = (0 0 -1) to (51.05 51.5788 1)
  2 by 3 by 1 MPI processor grid
  reading atoms ...
  1008 atoms
  0 = max # of 1-2 neighbors
  0 = max # of 1-3 neighbors
  0 = max # of 1-4 neighbors
  1 = max # of special neighbors

#----------------------------------------------------
#GROUP
#----------------------------------------------------

group		g1 id 1 2 3 4 5 6 7 8 9 10 11 12 13 14 15
15 atoms in group g1

#----------------------------------------------------
#POTENTIAL
#----------------------------------------------------

pair_style 	rebo
pair_coeff 	* * inputFiles/CH.airebo.real C

#----------------------------------------------------
#INITIALIZATION
#----------------------------------------------------

velocity       all create 300 1234567 mom yes rot yes

#----------------------------------------------------
#NEIGHBOUR LIST
#----------------------------------------------------

neighbor	2.5 bin
neigh_modify	every 1 delay 0 check yes

#----------------------------------------------------
#FORCE
#----------------------------------------------------

variable	Fx equal fcm(all,x)
variable	Fy equal fcm(all,y)

#----------------------------------------------------
#LOG
#----------------------------------------------------

thermo_style    custom step temp pe ke etotal v_Fx v_Fy
thermo          100
log             outputFiles/thermo.log
